                         Program Version 4.0.0 -  RELEASE  -
|  1> ! tzvpp tightscf noautostart
|  2>
|  3> # Assume that the MO ordering entering the CASSCF is correct!
|  4> %casscf
|  5>  nel 2
|  6>  norb 4
|  7>  end
|  8>
|  9> * xyz 0 1
| 10> Be 0 0 0
| 11> *
| 12>
| 13>                          ****END OF INPUT****

CARTESIAN COORDINATES (ANGSTROEM)
---------------------------------
  Be     0.000000    0.000000    0.000000

 Total Charge           Charge          ....    0
 Multiplicity           Mult            ....    1
 Number of Electrons    NEL             ....    4
 Basis Dimension        Dim             ....   14

ORBITAL ENERGIES
----------------

  NO   OCC          E(Eh)            E(eV)
   0   2.0000      -4.705030      -128.0304
   1   1.8012      -0.272703        -7.4206
   2   0.0663       0.115787         3.1507
   3   0.0663       0.115787         3.1507
   4   0.0663       0.115787         3.1507
   5   0.0000       0.167957         4.5704
   6   0.0000       0.295289         8.0352
   7   0.0000       0.295289         8.0352
   8   0.0000       0.295289         8.0352
   9   0.0000       1.918185        52.1965

MULLIKEN ATOMIC CHARGES
-----------------------
   0 Be:   -0.000000
Sum of atomic charges:   -0.0000000

LOEWDIN ATOMIC CHARGES
----------------------
   0 Be:   -0.000000

FINAL SINGLE POINT ENERGY       -14.605381529866

DIPOLE MOMENT
-------------
                                X             Y             Z
Electronic contribution:     -0.00000      -0.00000       0.00000
Nuclear contribution   :      0.00000       0.00000       0.00000
                        -----------------------------------------
Total Dipole Moment    :     -0.00000      -0.00000       0.00000
                        -----------------------------------------
Magnitude (a.u.)       :      0.00000
Magnitude (Debye)      :      0.00000

                             ****ORCA TERMINATED NORMALLY****
TOTAL RUN TIME: 0 days 0 hours 0 minutes 9 seconds 243 msec
