                         Program Version 4.0.0 -  RELEASE  -
|  1> ! tzvpp tightscf noautostart usesym
|  2>
|  3> * xyz 0 1
|  4> Be 0 0 0
|  5> *
|  6>
|  7>                          ****END OF INPUT****

CARTESIAN COORDINATES (ANGSTROEM)
---------------------------------
  Be     0.000000    0.000000    0.000000

 Total Charge           Charge          ....    0
 Multiplicity           Mult            ....    1
 Number of Electrons    NEL             ....    4
 Basis Dimension        Dim             ....   14

ORBITAL ENERGIES
----------------

  NO   OCC          E(Eh)            E(eV)    Irrep
   0   2.0000      -4.733369      -128.8015    1-Ag
   1   2.0000      -0.306831        -8.3493    2-Ag
   2   0.0000       0.053681         1.4607    1-B3u
   3   0.0000       0.053681         1.4607    1-B2u
   4   0.0000       0.053681         1.4607    1-B1u
   5   0.0000       0.162719         4.4278    3-Ag
   6   0.0000       0.344812         9.3828    2-B2u

MULLIKEN ATOMIC CHARGES
-----------------------
   0 Be:   -0.000000
Sum of atomic charges:   -0.0000000

LOEWDIN ATOMIC CHARGES
----------------------
   0 Be:   -0.000000

FINAL SINGLE POINT ENERGY       -14.562132411790

DIPOLE MOMENT
-------------
                                X             Y             Z
Electronic contribution:     -0.00000      -0.00000      -0.00000
Nuclear contribution   :      0.00000       0.00000       0.00000
                        -----------------------------------------
Total Dipole Moment    :      0.00000       0.00000       0.00000
                        -----------------------------------------
Magnitude (a.u.)       :      0.00000
Magnitude (Debye)      :      0.00000

                             ****ORCA TERMINATED NORMALLY****
TOTAL RUN TIME: 0 days 0 hours 0 minutes 1 seconds 149 msec
