                               Psi4 1.1 release

  ==> Input File <==

--------------------------------------------------------------------------
# -*- mode: python -*-

molecule {
    Be 0.0 0.0 0.0

    symmetry c1
}

set {
    reference rhf
    scf_type direct
    df_scf_guess false
    basis tzvpp
    num_roots 1
    restricted_docc [1]
    active [4]
}

energy('casscf')
--------------------------------------------------------------------------

    Molecular point group: c1
    Geometry (in Angstrom), charge = 0, multiplicity = 1:

       Center              X                  Y                   Z               Mass
    ------------   -----------------  -----------------  -----------------  -----------------
          BE          0.000000000000     0.000000000000     0.000000000000     9.012182201000

  Charge       = 0
  Multiplicity = 1
  Basis Set: TZVPP
    Blend: TZVPP

    Orbital Energies (a.u.)
    -----------------------

    Doubly Occupied:

       1A     -4.733369     2A     -0.306831

  @RHF Final Energy:   -14.56213241181375
    Total Energy =                        -14.5621324118137476
   @MCSCF Final Energy:  -14.605381527564786

   ==> Energetics <==

    SCF energy =          -14.562132411813748
    Total MCSCF energy =  -14.605381527564786

   ==> MCSCF root 0 information <==

    MCSCF Root 0 energy =   -14.605381527564786

   Active Space Natural occupation numbers:

         A   1.801205         A   0.066265         A   0.066265
         A   0.066265

   The 16 most important determinants:

    *   1    0.949001  (    0,    0)  2AX
    *   2   -0.182023  (    2,    2)  4AX
    *   3   -0.182023  (    3,    3)  5AX
    *   4   -0.182023  (    1,    1)  3AX

Properties will be evaluated at   0.000000,   0.000000,   0.000000 Bohr

Properties computed using the CASSCF density matrix

  Nuclear Dipole Moment: (a.u.)
     X:     0.0000      Y:     0.0000      Z:     0.0000

  Electronic Dipole Moment: (a.u.)

*** Psi4 exiting successfully. Buy a developer a beer!
