                               Psi4 1.1 release

  ==> Input File <==

--------------------------------------------------------------------------
# -*- mode: python -*-

molecule {
    Be 0.0 0.0 0.0
}

set {
    reference rhf
    scf_type direct
    df_scf_guess false
    basis tzvpp
    num_roots 1
    restricted_docc [1, 0, 0, 0, 0, 0, 0, 0]
    active [1, 0, 0, 0, 0, 1, 1, 1]
}

energy('casscf')
--------------------------------------------------------------------------

    Molecular point group: d2h
    Geometry (in Angstrom), charge = 0, multiplicity = 1:

       Center              X                  Y                   Z               Mass
    ------------   -----------------  -----------------  -----------------  -----------------
          BE          0.000000000000     0.000000000000     0.000000000000     9.012182201000

  Charge       = 0
  Multiplicity = 1
  Basis Set: TZVPP
    Blend: TZVPP

    Orbital Energies (a.u.)
    -----------------------

    Doubly Occupied:

       1Ag    -4.733369     2Ag    -0.306831

  @RHF Final Energy:   -14.56213241181375
    Total Energy =                        -14.5621324118137494
   @MCSCF Final Energy:  -14.605381529950634

   ==> Energetics <==

    SCF energy =          -14.562132411813749
    Total MCSCF energy =  -14.605381529950634

   ==> MCSCF root 0 information <==

    MCSCF Root 0 energy =   -14.605381529950634

   Active Space Natural occupation numbers:

        Ag   1.801213       B3u   0.066262       B2u   0.066262
       B1u   0.066262

   The 4 most important determinants:

    *   1    0.949003  (    0,    0)  2AgX
    *   2   -0.182020  (    3,    3)  1B3uX
    *   3   -0.182020  (    2,    2)  1B2uX
    *   4   -0.182020  (    1,    1)  1B1uX

Properties will be evaluated at   0.000000,   0.000000,   0.000000 Bohr

Properties computed using the CASSCF density matrix

  Nuclear Dipole Moment: (a.u.)
     X:     0.0000      Y:     0.0000      Z:     0.0000

  Electronic Dipole Moment: (a.u.)

*** Psi4 exiting successfully. Buy a developer a beer!
