                               Psi4 1.1 release

  ==> Input File <==

--------------------------------------------------------------------------
# -*- mode: python -*-

molecule {
    Be 0.0 0.0 0.0
}

set {
    reference rhf
    scf_type direct
    df_scf_guess false
    basis tzvpp
}

energy('hf')
--------------------------------------------------------------------------

    Molecular point group: d2h
    Geometry (in Angstrom), charge = 0, multiplicity = 1:

       Center              X                  Y                   Z               Mass
    ------------   -----------------  -----------------  -----------------  -----------------
          BE          0.000000000000     0.000000000000     0.000000000000     9.012182201000

  Charge       = 0
  Multiplicity = 1
  Basis Set: TZVPP
    Blend: TZVPP

    Orbital Energies (a.u.)
    -----------------------

    Doubly Occupied:

       1Ag    -4.733369     2Ag    -0.306831

  @RHF Final Energy:   -14.56213241181343

   => Energetics <=

    Nuclear Repulsion Energy =              0.0000000000000000
    One-Electron Energy =                 -19.0438675911518303
    Two-Electron Energy =                   4.4817351793383988
    DFT Exchange-Correlation Energy =       0.0000000000000000
    Empirical Dispersion Energy =           0.0000000000000000
    PCM Polarization Energy =               0.0000000000000000
    EFP Energy =                            0.0000000000000000
    Total Energy =                        -14.5621324118134314
*** Psi4 exiting successfully. Buy a developer a beer!
