 Q-Chem 5.0, Q-Chem, Inc., Pleasanton, CA (2017)
 Q-Chem 5.0.0 for Intel X86 EM64T Linux

User input:
--------------------------------------------------------------
$rem
method hf
basis gen
purecart 1111
scf_convergence 10
symmetry false
sym_ignore true
$end

$molecule
0 1
Be 0.0 0.0 0.0
$end

$basis
****
Be     0
S   6   1.00
   4700.23656300  0.00023584
    704.82845620  0.00182438
    160.43110480  0.00939661
     45.42534734  0.03690892
     14.79833412  0.10897561
      5.35124525  0.21694285
S   2   1.00
      2.15420448  0.44695409
      0.93363744  0.20866986
S   1   1.00
      0.18791433  1.0000000
S   1   1.00
      0.74648268  1.0000000
S   1   1.00
      0.03265048  1.0000000
P   1   1.00
      3.63169171 -0.02903400
P   2   1.00
      0.71695694 -0.16877854
      0.19541933 -0.51403420
P   1   1.00
      0.06051546  1.0000000
****
$end
--------------------------------------------------------------

             Standard Nuclear Orientation (Angstroms)
    I     Atom           X                Y                Z
 ----------------------------------------------------------------
    1      Be      0.0000000000     0.0000000000     0.0000000000
 ----------------------------------------------------------------

    8     -14.5621324118      5.69E-11 Convergence criterion met
 Total energy in the final basis set = -14.5621324118

                    Orbital Energies (a.u.)
 --------------------------------------------------------------

 Alpha MOs
 -- Occupied --
 -4.733  -0.307

          Ground-State Mulliken Net Atomic Charges

     Atom                 Charge (a.u.)
  ----------------------------------------
      1 Be                   -0.000000
  ----------------------------------------
  Sum of atomic charges =    -0.000000

                    Cartesian Multipole Moments
 -----------------------------------------------------------------
    Charge (ESU x 10^10)
                -0.0000
    Dipole Moment (Debye)
         X       0.0000      Y       0.0000      Z       0.0000
       Tot       0.0000
    Quadrupole Moments (Debye-Ang)
        XX      -8.9451     XY       0.0000     YY      -8.9451
        XZ       0.0000     YZ       0.0000     ZZ      -8.9451

 STANDARD THERMODYNAMIC QUANTITIES AT   298.15 K  AND     1.00 ATM

   Translational Enthalpy:        0.889 kcal/mol
   Rotational Enthalpy:           0.000 kcal/mol
   Vibrational Enthalpy:          0.000 kcal/mol
   gas constant (RT):             0.592 kcal/mol
   Translational Entropy:        32.544  cal/mol.K
   Rotational Entropy:            0.000  cal/mol.K
   Vibrational Entropy:           0.000  cal/mol.K

   Total Enthalpy:                1.481 kcal/mol
   Total Entropy:                32.544  cal/mol.K

 Total job time:  0.12s(wall), 0.12s(cpu)
        *  Thank you very much for using Q-Chem.  Have a nice day.  *
